********************************************************************************
*                       GENERAL UTILITY LATTICE PROGRAM                        *
*                                 Julian Gale                                  *
*                      Nanochemistry Research Institute                        *
*                           Department of Chemistry                            *
*                    Curtin University, Western Australia                      *
********************************************************************************
* Version = 4.0.1 * Last modified =   7th March 2012                           *
********************************************************************************
*  optimise     - perform optimisation run                                     *
*  conp         - constant pressure calculation                                *
*  noelectro    - do not include electrostatic terms despite charges present   *
********************************************************************************
* ASE calculation                                                              *
********************************************************************************


  Job Started  at 14:29.56 16th August     2019                               

  Number of CPUs =     1


  Total number of configurations input =   1

********************************************************************************
*  Input for Configuration =   1                                               *
********************************************************************************

  Formula = C20F3                                                       

  Number of irreducible atoms/shells =      23


  Total number atoms/shells =      23

  Dimensionality = 0               :  Cluster


  Charge on cluster =   0.00


  Initial cluster dipoles : x =      0.000000 e.Angs
                            y =      0.000000 e.Angs
                            z =      0.000000 e.Angs

  Temperature of configuration =  0.000     K 

  Cartesian coordinates of cluster :

--------------------------------------------------------------------------------
   No.  Atomic       x           y          z         Charge      Occupancy
        Label      (Angs)      (Angs)     (Angs)        (e)         (Frac)  
--------------------------------------------------------------------------------
      1 C     c     37.4758 *   48.7285 * -273.1558 *   0.00000    1.000000    
      2 C     c     38.9674 *   49.0163 * -273.1022 *   0.00000    1.000000    
      3 C     c     39.8569 *   47.8208 * -273.0136 *   0.00000    1.000000    
      4 C     c     37.0195 *   47.3190 * -273.1176 *   0.00000    1.000000    
      5 C     c     38.0572 *   46.2610 * -273.0282 *   0.00000    1.000000    
      6 C     c     39.3850 *   46.5572 * -272.9821 *   0.00000    1.000000    
      7 C     c     40.3088 *   45.4498 * -272.8957 *   0.00000    1.000000    
      8 C     c     37.4696 *   44.9553 * -273.0000 *   0.00000    1.000000    
      9 C     c     38.4904 *   43.9055 * -272.9117 *   0.00000    1.000000    
     10 C     c     39.8480     44.1647   -272.8628     0.00000    1.000000    
     11 C     c     40.8532 *   43.0164 * -273.0385 *   0.00000    1.000000    
     12 C     c     37.9556 *   42.5909 * -272.8808 *   0.00000    1.000000    
     13 C     c     38.9385 *   41.5106 * -272.7929 *   0.00000    1.000000    
     14 C     c     40.3060 *   41.7538 * -272.7429 *   0.00000    1.000000    
     15 C     c     41.2181 *   40.6412 * -272.6568 *   0.00000    1.000000    
     16 C     c     38.4245 *   40.1898 * -272.7609 *   0.00000    1.000000    
     17 C     c     39.3972 *   39.1009 * -272.6731 *   0.00000    1.000000    
     18 C     c     40.7667 *   39.3415 * -272.6229 *   0.00000    1.000000    
     19 C     c     41.7226 *   38.1164 * -272.4689 *   0.00000    1.000000    
     20 C     c     38.8871 *   37.7788 * -272.6408 *   0.00000    1.000000    
     21 F     c     37.3280 *   42.4233 * -271.4072 *   0.00000    1.000000    
     22 F     c     41.6754 *   45.8799 * -272.0043 *   0.00000    1.000000    
     23 F     c     42.3148 *   40.7338 * -272.0665 *   0.00000    1.000000    
--------------------------------------------------------------------------------



********************************************************************************
*  General input information                                                   *
********************************************************************************

  Species output for all configurations : 

--------------------------------------------------------------------------------
  Species    Type    Atomic    Atomic    Charge       Radii (Angs)     Library
                     Number     Mass       (e)     Cova   Ionic  VDW   Symbol
--------------------------------------------------------------------------------
    C        Core        6      12.01   0.000000   0.770  0.000  1.530          
    F        Core        9      19.00   0.000000   0.710  0.000  1.300          
--------------------------------------------------------------------------------


  Accuracy factor for short range sums = 12.000

  Time limit = Infinity

  Maximum range for interatomic potentials =    100000.000000 Angstroms

  ReaxFF forcefield to be used

  ReaxFF Coulomb cutoff =  10.0000 Ang
  ReaxFF VDW     cutoff =  10.0000 Ang
  ReaxFF H-bond  cutoff =   7.5000 Ang

  ReaxFF pairwise bond order       threshold = 0.00100000000000
  ReaxFF angle/torsion bond order  threshold = 0.00100000000000
  ReaxFF bond order double product threshold = 0.00000100000000
  ReaxFF bond order triple product threshold = 0.00000000100000
  ReaxFF hydrogen-bond bond order  threshold = 0.01000000000000


********************************************************************************
*  Output for configuration   1                                                *
********************************************************************************



!!!!!!!!!!!!!!!!!!!!!!!!!!!!!!!!!!!!!!!!!!!!!!!!!!!!!!!!!!!!!!!!!!!!!!!!!!!!!!!!
!! ERROR : charge solution failed in setreaxffQ
!!!!!!!!!!!!!!!!!!!!!!!!!!!!!!!!!!!!!!!!!!!!!!!!!!!!!!!!!!!!!!!!!!!!!!!!!!!!!!!!


 Program terminated by processor     0 in      setreaxffQ

